VARIABLES = "X","Velocity-P","Density","Pressure","Velocity-C","Internal Energy","Entropy"
 ZONE I=         101 ,F=BLOCK,VARLOCATION=([3-7]=CELLCENTERED)
   0.0000000000000000     
   1.0000007719787230E-002
   2.0000037647546189E-002
   3.0000164282180695E-002
   4.0000659918993930E-002
   5.0002429386217545E-002
   6.0008144106533844E-002
   7.0024691760837893E-002
   8.0067270984312600E-002
   9.0163973287951504E-002
  0.10035750179529873     
  0.11070086406934372     
  0.12124853787108625     
  0.13204900716484685     
  0.14314269710611913     
  0.15456418535227043     
  0.16634553950251468     
  0.17851896901227790     
  0.19111857303534557     
  0.20418154301009578     
  0.21774915114203364     
  0.23186771717273827     
  0.24658965416281503     
  0.26197464412868776     
  0.27809094992538813     
  0.29501678478539523     
  0.31284144172609857     
  0.33166526946155922     
  0.35159573432293190     
  0.37273083350245606     
  0.39510072716623573     
  0.41847458904309387     
  0.44203247828749209     
  0.46526681092051997     
  0.48821075172745870     
  0.51098177540256662     
  0.53369007594339402     
  0.55638272878204287     
  0.57907069267420086     
  0.60176012614329188     
  0.62450163372342460     
  0.63033025161678957     
  0.63606512648547631     
  0.64178129895767766     
  0.64748232888315349     
  0.65317345246040659     
  0.65885627464749452     
  0.66453159329210676     
  0.67019987771124367     
  0.67586145317880253     
  0.68151657276123767     
  0.68716544571367488     
  0.69280828537660633     
  0.69844530690044038     
  0.70407673451701358     
  0.70970282541715013     
  0.71532384317043729     
  0.72094006039139180     
  0.72655176432081714     
  0.73215926043640012     
  0.73776286352164999     
  0.74336289198127015     
  0.74895967820638865     
  0.75455358627109692     
  0.76014499120064316     
  0.76573426446571780     
  0.77132176173633238     
  0.77690781575147605     
  0.78249273034045363     
  0.78807677654785491     
  0.79366019140355315     
  0.79924317901814546     
  0.80482591284190308     
  0.81040853876625429     
  0.81599117963484069     
  0.82157394133836459     
  0.82715692043095934     
  0.83274021349892213     
  0.83832392867476080     
  0.84390819964420782     
  0.84949320242154025     
  0.85507917554055768     
  0.86066644677054405     
  0.86625548007383069     
  0.87184699645594432     
  0.87744236342105408     
  0.88304493706629394     
  0.88866465661548155     
  0.89433313521689928     
  0.90014771392707138     
  0.90635535441254222     
  0.91336478016220535     
  0.92147377254854412     
  0.93054970763962863     
  0.94018614096847475     
  0.95006035735187788     
  0.96001923932916022     
  0.97000608170183011     
  0.98000189819140493     
  0.99000054224597700     
   1.0000000000000000     
   0.0000000000000000     
   1.5976305141198068E-006
   7.3816913518029267E-006
   3.0235130836504856E-005
   1.1315381444838268E-004
   3.8460612931937813E-004
   1.1770699809623051E-003
   3.2129994136283922E-003
   7.7537386800991979E-003
   1.6453180908032584E-002
   3.0738888685740991E-002
   5.1067054500419873E-002
   7.6758694809177561E-002
  0.10656325091038790     
  0.13933671552065419     
  0.17433622860704573     
  0.21117901170945952     
  0.24970613117301110     
  0.28987919198081885     
  0.33172508772799780     
  0.37531004951041275     
  0.42072726662877358     
  0.46808973294570544     
  0.51752371627873384     
  0.56915865174707569     
  0.62310644058960873     
  0.67941415650996895     
  0.73794800242237635     
  0.79808484887641007     
  0.85781367478270942     
  0.91093105163943044     
  0.93879470504716400     
  0.92702948004766361     
  0.91379733497820814     
  0.90466449994916864     
  0.90090017303195435     
  0.89982238021864658     
  0.89937237996370323     
  0.89900049768007195     
  0.89868426918470523     
  0.89848433930838423     
  0.89845227476185829     
  0.89842139116353392     
  0.89839136474876480     
  0.89836228840924603     
  0.89833422924224104     
  0.89830719325411423     
  0.89828105339064435     
  0.89825551329849995     
  0.89823010966092454     
  0.89820425724033215     
  0.89817732942117401     
  0.89814875623424817     
  0.89811811666891816     
  0.89808520270436665     
  0.89805004018670831     
  0.89801286311030737     
  0.89797404784198764     
  0.89793402223952434     
  0.89789316802761776     
  0.89785173425060083     
  0.89780977598359779     
  0.89776712760999777     
  0.89772341480821671     
  0.89767810436666129     
  0.89763058508913873     
  0.89758026848924910     
  0.89752669363595816     
  0.89746961759326382     
  0.89740907180362683     
  0.89734536587890168     
  0.89727902316859132     
  0.89721063618265517     
  0.89714063322179516     
  0.89706894955672944     
  0.89699459740925047     
  0.89691513039720216     
  0.89682600280217450     
  0.89671983431148750     
  0.89658560305459434     
  0.89640777512125980     
  0.89616521755240142     
  0.89582899981549935     
  0.89535533604199169     
  0.89465977510476336     
  0.89352373600644497     
  0.89126457506527001     
  0.88562316925969586     
  0.86924236772298313     
  0.82115472660815114     
  0.70277319511349712     
  0.49803075310526451     
  0.27243901172393314     
  0.11581643603787117     
   4.1600777028163574E-002
   1.3799374130075155E-002
   4.4399702660648859E-003
   1.4113319407068495E-003
   4.4269006721758391E-004
   1.2704282648379894E-004
   0.0000000000000000     
  0.99999922802187302     
  0.99999700723306095     
  0.99998733669691053     
  0.99995043877511336     
  0.99982308458224201     
  0.99942885436212769     
  0.99834796829455208     
  0.99576013068682767     
  0.99042238735670585     
  0.98101457143051807     
  0.96680361134535442     
  0.94807634251525175     
  0.92588569329825077     
  0.90141333072566165     
  0.87554264247215596     
  0.84879886237803015     
  0.82146119891521974     
  0.79367573629232546     
  0.76552269654828109     
  0.73704958919473973     
  0.70828722819670786     
  0.67925844314783113     
  0.64998417432719768     
  0.62048959148239591     
  0.59081280673654279     
  0.56102061505400391     
  0.53124158064631222     
  0.50174444347161484     
  0.47314658497973955     
  0.44702939362611099     
  0.42782831748915023     
  0.42448624731427864     
  0.43039755683728537     
  0.43584491801756209     
  0.43915460906272225     
  0.44036760840032435     
  0.44067126356282910     
  0.44076233757831712     
  0.44073378974502114     
  0.43972458574980949     
  0.17156725973379627     
  0.17437172090016184     
  0.17494223711113660     
  0.17540690244956691     
  0.17571222737051601     
  0.17596890542732857     
  0.17620156023298059     
  0.17642022277919869     
  0.17662928026484095     
  0.17683092027019393     
  0.17702646322901455     
  0.17721573883609218     
  0.17739864851888049     
  0.17757486521837137     
  0.17774330663156016     
  0.17790372560470971     
  0.17805579105254848     
  0.17819899491782243     
  0.17833271381518148     
  0.17845660814775732     
  0.17857052106264298     
  0.17867396748369252     
  0.17876589826510697     
  0.17884592738325503     
  0.17891413652086802     
  0.17897100464981675     
  0.17901724496201124     
  0.17905376780042542     
  0.17908161266190262     
  0.17910186254195942     
  0.17911556840754594     
  0.17912371099342891     
  0.17912717304557998     
  0.17912669353800201     
  0.17912281646712425     
  0.17911584181398743     
  0.17910576927047764     
  0.17909222954765103     
  0.17907440478287259     
  0.17905094050421091     
  0.17901983749178885     
  0.17897824516431088     
  0.17892181809186028     
  0.17884236254745300     
  0.17871928798156755     
  0.17848939850163956     
  0.17794482291283770     
  0.17641417923848102     
  0.17198150542714083     
  0.16109180329313991     
  0.14266503929342023     
  0.12331988394571705     
  0.11018148432797002     
  0.10377283439574657     
  0.10127385922804261     
  0.10041287789946053     
  0.10013174962454725     
  0.10004185261333635     
  0.10001356129311673     
  0.10000542275381673     
  0.99999889907476369     
  0.99999573198892633     
  0.99998194078755842     
  0.99992932095849874     
  0.99974770810096958     
  0.99918557623839743     
  0.99764479600839273     
  0.99395858534594206     
  0.98636735434412548     
  0.97302742306150658     
  0.95297351553409215     
  0.92672603830972899     
  0.89589266990699767     
  0.86223216428007055     
  0.82704751423661360     
  0.79111593609921604     
  0.75485978758612193     
  0.71851180817436389     
  0.68221206323505335     
  0.64605538760300885     
  0.61011421538477628     
  0.57445082163730399     
  0.53912547576632708     
  0.50420388910699809     
  0.46976680172388502     
  0.43592611845125651     
  0.40285746366682357     
  0.37087556205632749     
  0.34063190583713604     
  0.31369330110770766     
  0.29431797135677684     
  0.29098614052488841     
  0.29691945210279846     
  0.30242022075079078     
  0.30578229780077160     
  0.30703386043735559     
  0.30737973358246057     
  0.30754260589630755     
  0.30767441202769241     
  0.30776777672903599     
  0.30781473431081191     
  0.30781542830648106     
  0.30781554097408287     
  0.30781517856034868     
  0.30781440896988488     
  0.30781327926435359     
  0.30781179770623218     
  0.30780992432874299     
  0.30780757004393000     
  0.30780460730567222     
  0.30780089122123583     
  0.30779628669007447     
  0.30779069518142899     
  0.30778407461664553     
  0.30777644767745799     
  0.30776789685285372     
  0.30775854759431864     
  0.30774854347264624     
  0.30773801843056831     
  0.30772707128297200     
  0.30771574675359609     
  0.30770402601808300     
  0.30769182822633762     
  0.30767902296056865     
  0.30766545201833440     
  0.30765095754411798     
  0.30763541222505641     
  0.30761874633749919     
  0.30760096601599168     
  0.30758215733213395     
  0.30756247153211486     
  0.30754208783106723     
  0.30752115115588680     
  0.30749968288303514     
  0.30747746292411082     
  0.30745388183306832     
  0.30742776271078609     
  0.30739715533912526     
  0.30735910864258337     
  0.30730942585975374     
  0.30724237180522102     
  0.30715013117945023     
  0.30702115288693188     
  0.30683412884800326     
  0.30653615431518572     
  0.30596560892143376     
  0.30459191622463394     
  0.30070561690734515     
  0.28946292326454326     
  0.26213336339639137     
  0.21722452258340891     
  0.17275248716052860     
  0.14485916590356065     
  0.13215646249180316     
  0.12738842499115391     
  0.12577097212115798     
  0.12524568776312303     
  0.12507801350648906     
  0.12502527489620655     
  0.12501010627666576     
   0.0000000000000000     
   0.0000000000000000     
   0.0000000000000000     
   0.0000000000000000     
   0.0000000000000000     
   0.0000000000000000     
   0.0000000000000000     
   0.0000000000000000     
   0.0000000000000000     
   0.0000000000000000     
   0.0000000000000000     
   0.0000000000000000     
   0.0000000000000000     
   0.0000000000000000     
   0.0000000000000000     
   0.0000000000000000     
   0.0000000000000000     
   0.0000000000000000     
   0.0000000000000000     
   0.0000000000000000     
   0.0000000000000000     
   0.0000000000000000     
   0.0000000000000000     
   0.0000000000000000     
   0.0000000000000000     
   0.0000000000000000     
   0.0000000000000000     
   0.0000000000000000     
   0.0000000000000000     
   0.0000000000000000     
   0.0000000000000000     
   0.0000000000000000     
   0.0000000000000000     
   0.0000000000000000     
   0.0000000000000000     
   0.0000000000000000     
   0.0000000000000000     
   0.0000000000000000     
   0.0000000000000000     
   0.0000000000000000     
   0.0000000000000000     
   0.0000000000000000     
   0.0000000000000000     
   0.0000000000000000     
   0.0000000000000000     
   0.0000000000000000     
   0.0000000000000000     
   0.0000000000000000     
   0.0000000000000000     
   0.0000000000000000     
   0.0000000000000000     
   0.0000000000000000     
   0.0000000000000000     
   0.0000000000000000     
   0.0000000000000000     
   0.0000000000000000     
   0.0000000000000000     
   0.0000000000000000     
   0.0000000000000000     
   0.0000000000000000     
   0.0000000000000000     
   0.0000000000000000     
   0.0000000000000000     
   0.0000000000000000     
   0.0000000000000000     
   0.0000000000000000     
   0.0000000000000000     
   0.0000000000000000     
   0.0000000000000000     
   0.0000000000000000     
   0.0000000000000000     
   0.0000000000000000     
   0.0000000000000000     
   0.0000000000000000     
   0.0000000000000000     
   0.0000000000000000     
   0.0000000000000000     
   0.0000000000000000     
   0.0000000000000000     
   0.0000000000000000     
   0.0000000000000000     
   0.0000000000000000     
   0.0000000000000000     
   0.0000000000000000     
   0.0000000000000000     
   0.0000000000000000     
   0.0000000000000000     
   0.0000000000000000     
   0.0000000000000000     
   0.0000000000000000     
   0.0000000000000000     
   0.0000000000000000     
   0.0000000000000000     
   0.0000000000000000     
   0.0000000000000000     
   0.0000000000000000     
   0.0000000000000000     
   0.0000000000000000     
   0.0000000000000000     
   0.0000000000000000     
   2.1558184675289858     
   2.1558162467377695     
   2.1558065761581031     
   2.1557696775765978     
   2.1556423150983965     
   2.1552480001701402     
   2.1541664236373013     
   2.1515741994290347     
   2.1462151740265996     
   2.1367293791770576     
   2.1223012543086859     
   2.1031011343358914     
   2.0800673294273446     
   2.0542966793544495     
   2.0266162297724915     
   1.9975081437230415     
   1.9672104887822224     
   1.9358254708038363     
   1.9033852335173735     
   1.8698843549646367     
   1.8352953170595754     
   1.7995767639004343     
   1.7626794645873631     
   1.7245531180234248     
   1.6851577000329589     
   1.6444865188511217     
   1.6026183957970204     
   1.5598470439896261     
   1.5170348222592314     
   1.4766750091140965     
   1.4461708544564709     
   1.4407970990694141     
   1.4504379295816532     
   1.4592638037443035     
   1.4646200628828625     
   1.4666532900581528     
   1.4673094948456185     
   1.4677763448557801     
   1.4684655964840256     
   1.4719766633963667     
   3.6376168416487387     
   3.5799096710532132     
   3.5683979164262087     
   3.5590725057229369     
   3.5529658627066052     
   3.5478431673594879     
   3.5432076765839984     
   3.5388567068952166     
   3.5347005833063374     
   3.5306934171222664     
   3.5268066082598386     
   3.5230411534110493     
   3.5193970683750004     
   3.5158794861340268     
   3.5125089652913521     
   3.5092903788915777     
   3.5062307196960671     
   3.5033406111118750     
   3.5006327803808821     
   3.4981140554987364     
   3.4957871518383796     
   3.4936604420908188     
   3.4917524838173692     
   3.4900685209539626     
   3.4886045619990633     
   3.4873490880568294     
   3.4862865397181686     
   3.4853983295755273     
   3.4846643414726683     
   3.4840646032096636     
   3.4835805509125461     
   3.4831953266056077     
   3.4828935967136041     
   3.4826614151915449     
   3.4824858707822561     
   3.4823543576935605     
   3.4822536467700553     
   3.4821688829898001     
   3.4820825477241164     
   3.4819733862721312     
   3.4818151769229555     
   3.4815745767999462     
   3.4812047850573693     
   3.4806227871511983     
   3.4796269903774157     
   3.4776057994989569     
   3.4725466775326446     
   3.4578740032280990     
   3.4140698238634370     
   3.2999962720450204     
   3.0867040271636630     
   2.8387220507865729     
   2.6634258119998626     
   2.5795114118782765     
   2.5476265827392561     
   2.5367850528526330     
   2.5332624186874266     
   2.5321378284316292     
   2.5317840981488802     
   2.5316823575926892     
  0.99999997984395284     
  0.99999992185980580     
  0.99999966936112117     
  0.99999870589577355     
  0.99999537977747888     
  0.99998507685168347     
  0.99995677602763167     
  0.99988870462289625     
  0.99974689072791789     
  0.99949226800467872     
  0.99909609514963882     
  0.99855210615777390     
  0.99787389278730299     
  0.99708148658596352     
  0.99619013497450781     
  0.99520701499444664     
  0.99413282516802715     
  0.99296414047821269     
  0.99169493390881225     
  0.99031728811303665     
  0.98882165544504153     
  0.98719691930794418     
  0.98543040631181056     
  0.98350798482409374     
  0.98141447932802173     
  0.97913492664501278     
  0.97665804054996264     
  0.97398578202557007     
  0.97116121694884661     
  0.96835529583290170     
  0.96613862287421526     
  0.96574669425454063     
  0.96654245312271847     
  0.96726627333385284     
  0.96771598879239751     
  0.96793180385770661     
  0.96808748696849067     
  0.96832026575737351     
  0.96882311569782331     
  0.97223242114207709     
   3.6314596574620372     
   3.5499636700942130     
   3.5337676973833019     
   3.5206648173639650     
   3.5120942976558229     
   3.5049114160302750     
   3.4984172981324901     
   3.4923270314527772     
   3.4865148349987911     
   3.4809166655615349     
   3.4754928796014259     
   3.4702452667071571     
   3.4651740776986073     
   3.4602864617379487     
   3.4556108217472166     
   3.4511533434318546     
   3.4469229794529670     
   3.4429336702204081     
   3.4392023348571903     
   3.4357378202387796     
   3.4325434926961029     
   3.4296309134415601     
   3.4270261362111216     
   3.4247368816326311     
   3.4227581421558697     
   3.4210744441404999     
   3.4196645736638382     
   3.4185028632085777     
   3.4175611945383957     
   3.4168113064598828     
   3.4162266189238530     
   3.4157828126760665     
   3.4154578564034708     
   3.4152322200097900     
   3.4150889185935975     
   3.4150131692833749     
   3.4149919086682177     
   3.4150133351619441     
   3.4150665024084090     
   3.4151409452209518     
   3.4152263067021180     
   3.4153118207492263     
   3.4153850619546868     
   3.4154277790567207     
   3.4154010598034157     
   3.4151927303799567     
   3.4144351840286715     
   3.4118871366756625     
   3.4034431370064584     
   3.3776876003966336     
   3.3179074447263157     
   3.2357723414536745     
   3.1768295514948890     
   3.1518914675195289     
   3.1436462114442327     
   3.1410528052823525     
   3.1402357627896227     
   3.1399776682836076     
   3.1398967650616632     
   3.1398735203383761     
