VARIABLES = "X","Velocity-P","Density","Pressure","Velocity-C","Internal Energy","Entropy"
 ZONE I=         101 ,F=BLOCK,VARLOCATION=([3-7]=CELLCENTERED)
   5.9400513681137472E-004
   1.0940051368113753E-003
   1.5941265910796572E-003
   2.0944647101485700E-003
   2.5949654813880105E-003
   3.0955646265774248E-003
   3.5962469166206626E-003
   4.0970411154990678E-003
   4.5980127946969995E-003
   5.0995289604433367E-003
   5.6039678275191067E-003
   6.1054884876660916E-003
   6.6064689717372487E-003
   7.1072761433765667E-003
   7.6079764947305428E-003
   8.1086073815752786E-003
   8.6091890511955597E-003
   9.1097342072820296E-003
   9.6102516408297489E-003
   1.0110747942750140E-002
   1.0611228352890965E-002
   1.1111697169098170E-002
   1.1612157915473389E-002
   1.2112613379114040E-002
   1.2613065575293828E-002
   1.3113515712113215E-002
   1.3613964270313608E-002
   1.4114411264173845E-002
   1.4614856699929093E-002
   1.5115300502819866E-002
   1.5615733867717068E-002
   1.6116149509623711E-002
   1.6616558705828972E-002
   1.7116969793361535E-002
   1.7617392213817161E-002
   1.8117838803280956E-002
   1.8618325708680793E-002
   1.9118871778657148E-002
   1.9619497477976228E-002
   2.0120223225429414E-002
   2.0621066496806357E-002
   2.1121999580845645E-002
   2.1622512297192559E-002
   2.2121868320789946E-002
   2.2619533847783493E-002
   2.3115164108761525E-002
   2.3608541404806085E-002
   2.4099529810167292E-002
   2.4588063863143380E-002
   2.5074154139444006E-002
   2.5557851346474845E-002
   2.6039181600055250E-002
   2.6518148221867686E-002
   2.6994840329296735E-002
   2.7469504240028746E-002
   2.7942410183120971E-002
   2.8413634567769432E-002
   2.8883151043686283E-002
   2.9351270299120082E-002
   2.9818768779407073E-002
   3.0286268642195621E-002
   3.0754026528687722E-002
   3.1222301565155847E-002
   3.1691422541889058E-002
   3.2161791830513126E-002
   3.2633875747289362E-002
   3.3108173179738340E-002
   3.3585159188731485E-002
   3.4065210175082183E-002
   3.4548530226259457E-002
   3.5035105835806130E-002
   3.5524709312627870E-002
   3.6016950558995182E-002
   3.6511355775007297E-002
   3.7007444388794393E-002
   3.7504784057971641E-002
   3.8003018226639936E-002
   3.8501871446791652E-002
   3.9001141356302269E-002
   3.9500685051927921E-002
   4.0000404804152567E-002
   4.0500235554289131E-002
   4.1000134999095703E-002
   4.1500076209934338E-002
   4.2000042380689800E-002
   4.2500023218235289E-002
   4.3000012532061545E-002
   4.3500006664630393E-002
   4.4000003492368094E-002
   4.4500001803379458E-002
   4.5000000917725720E-002
   4.5500000460294156E-002
   4.6000000227559464E-002
   4.6500000110900004E-002
   4.7000000053281699E-002
   4.7500000025235911E-002
   4.8000000011775644E-002
   4.8500000005393534E-002
   4.9000000002376629E-002
   4.9500000000892996E-002
   5.0000000000000003E-002
 -0.76977484188763978     
 -0.76977484188763978     
 -0.77209763366603357     
 -0.77679794626109067     
 -0.78393743762424672     
 -0.79351861183648920     
 -0.80540928332103245     
 -0.81928489361509027     
 -0.83462085207970838     
 -0.85074719874365956     
 -0.86710932554346087     
 -0.88229593601939793     
 -0.89598234240862196     
 -0.90807468470658170     
 -0.91916413797767083     
 -0.93067731516738750     
 -0.94477471605200802     
 -0.96407058863145489     
 -0.99126356983850572     
  -1.0287178239212453     
  -1.0779930038246430     
  -1.1393641862192125     
  -1.2114562436508047     
  -1.2910792901658474     
  -1.3732741126447672     
  -1.4520793657883564     
  -1.5226397019706559     
  -1.5833506388994940     
  -1.6347416070471190     
  -1.6724542467090016     
  -1.5530821251108775     
  -1.4769753839006650     
  -1.4962141933122588     
  -1.5867068146202885     
  -1.7803346984122286     
  -2.1137661674883623     
  -2.6233286342340700     
  -3.3363877786430867     
  -4.2589672861101109     
  -5.4180367174428783     
  -6.7655751374732187     
  -6.2936745829486362     
   2.2625474084978952     
   17.763146434002216     
   38.078883768708153     
   61.580754981995526     
   87.283184101878916     
   114.46497671679465     
   142.28846588979891     
   170.04626904179753     
   197.63375133903438     
   225.47397054481303     
   253.32434717406710     
   279.48510740228704     
   302.38417802414341     
   323.16187663306516     
   344.33549579278548     
   364.62452139119995     
   377.76236453452583     
   380.95519832201586     
   379.83248595605494     
   376.04246652323616     
   368.83571981171946     
   357.34703738816978     
   340.71190730721412     
   318.27633237857930     
   289.88862058356841     
   256.19070081607595     
   218.76050654426183     
   179.95681944802419     
   142.44238623995381     
   108.55911437265272     
   79.838545431148532     
   56.841586524311445     
   39.314868080400345     
   26.505057276861429     
   17.466549920023077     
   11.275921678881376     
   7.1428482682002041     
   4.4449100729530757     
   2.7193429227590942     
   1.6364283892205072     
  0.96896285622490752     
  0.56466357119150168     
  0.32389961078623564     
  0.18290179906433751     
  0.10168415069503318     
   5.5661428849444208E-002
   3.0002644475476212E-002
   1.5926081736277152E-002
   8.3261678812295136E-003
   4.2875909625555127E-003
   2.1750069718444081E-003
   1.0870111043835380E-003
   5.3526692248548054E-004
   2.5968677433854665E-004
   1.2404001362302218E-004
   5.8095517653965698E-005
   2.6118940565991936E-005
   9.9625783063371445E-006
   0.0000000000000000     
   2784.9999999999968     
   2784.3236640134546     
   2783.1179495004803     
   2782.2134949994424     
   2781.6667554897890     
   2781.2048232817401     
   2780.5833276796893     
   2779.5982444145902     
   2776.5804875456720     
   2760.4930763410748     
   2776.5556050908990     
   2779.5493921919251     
   2780.5113002712383     
   2781.1044993965947     
   2781.4903886101310     
   2781.7638649379423     
   2781.9667877466081     
   2782.1208746512934     
   2782.2383395381958     
   2782.3266840917504     
   2782.3911398776872     
   2782.4360053924615     
   2782.4653763793826     
   2782.4835431429387     
   2782.4949931076876     
   2782.5037702324794     
   2782.5124680215154     
   2782.5211311968646     
   2782.5302100981944     
   2782.5882478600111     
   2782.6867975077898     
   2782.7226409100958     
   2782.7121234786500     
   2782.6491041951222     
   2782.5147164895229     
   2782.2905753898604     
   2781.9617084712490     
   2781.5192106477853     
   2780.9634457237239     
   2780.3108868202880     
   2779.8124028294128     
   2782.1470954093315     
   2788.5915743408023     
   2798.0640098024041     
   2809.5540358092130     
   2822.3836223591356     
   2836.1158528286924     
   2850.3642510016803     
   2864.6942098854056     
   2878.8671502732514     
   2893.0240508295556     
   2907.3007107065323     
   2921.1727618277205     
   2933.6546733720165     
   2944.5601611490833     
   2955.0677880110575     
   2965.8171148963183     
   2974.6693472576635     
   2978.6193083347875     
   2978.6104998918959     
   2976.9674445104533     
   2973.6797641460207     
   2968.3174896523842     
   2960.4398792135580     
   2949.6874401252562     
   2935.9214381785587     
   2919.3728405983766     
   2900.7335462127744     
   2881.1136566921723     
   2861.8368300403486     
   2844.1382995059844     
   2828.8974365242661     
   2816.5155926790662     
   2806.9581951695691     
   2799.8973062084974     
   2794.8705399349560     
   2791.4022476922141     
   2789.0725506869180     
   2787.5439369842666     
   2786.5618555217929     
   2785.9430409584493     
   2785.5602050904608     
   2785.3274941350164     
   2785.1884416417511     
   2785.1067389623931     
   2785.0595232599089     
   2785.0326819750353     
   2785.0176696130779     
   2785.0094076984838     
   2785.0049331000578     
   2785.0025478961470     
   2785.0012963328413     
   2785.0006497933427     
   2785.0003209340011     
   2785.0001562150474     
   2785.0000749736923     
   2785.0000355483535     
   2785.0000168041674     
   2785.0000082638339     
   2785.0000049739765     
  -8.2552057469557642E-005
  -247526.88406451419     
  -504047.31494484097     
  -777437.11364018917     
  -1073227.6989290267     
  -1393454.2441585362     
  -1735983.2599028796     
  -2094391.2553322911     
  -2458651.3760688603     
  -2817429.6931827068     
  -3155772.2334018648     
  -3469264.2671076059     
  -3756120.1941475272     
  -4025098.3735636026     
  -4296092.2622242570     
  -4598661.5883887261     
  -4969080.9332811385     
  -5446408.0124635994     
  -6066951.1317814887     
  -6856714.7419983000     
  -7823358.1497186124     
  -8950623.1416429058     
  -10196473.876822397     
  -11493428.895494439     
  -12755874.154785149     
  -13904772.374751076     
  -14901528.152847692     
  -15782055.219461598     
  -16570479.962401174     
  -15919511.379361786     
  -14082646.342264988     
  -13986759.116998896     
  -15163459.676148720     
  -17782326.105267748     
  -22376801.056176573     
  -29468767.199087225     
  -39483514.121871047     
  -52673356.299915969     
  -69026642.183067620     
  -88074069.726855129     
  -102725895.64362603     
  -37235293.449106194     
   145473686.08190295     
   416864183.63483280     
   750298045.70850599     
   1128013085.1946485     
   1538595250.7482340     
   1971474902.6511178     
   2413876258.0565677     
   2858379277.8303332     
   3309290115.0426617     
   3771021748.5543556     
   4226401058.8334761     
   4641797740.1490355     
   5009102289.6592464     
   5366894623.5583639     
   5736889680.0224228     
   6044538673.6614227     
   6182505813.7051296     
   6181859165.3824358     
   6123906865.8501320     
   6008496326.1448154     
   5821129094.3312550     
   5547573889.4014997     
   5177369885.7655945     
   4708794295.0533752     
   4153635845.2785678     
   3539204277.7016759     
   2905188222.5765171     
   2295313409.2088780     
   1747057343.7381904     
   1284111736.7433095     
   914395820.34797990     
   633003659.42539322     
   427380455.93067944     
   282182495.37779063     
   182583788.46939999     
   115951800.11384718     
   72350507.892815411     
   44388245.413514614     
   26789343.890196342     
   15909506.079365300     
   9299049.8340339381     
   5350163.4435711130     
   3030306.8041914739     
   1689798.3797535799     
   927785.62185997900     
   501604.48194458574     
   267063.78672735096     
   140039.33337743764     
   72328.761142593226     
   36799.795256401296     
   18446.072674037001     
   9110.5432702067210     
   4434.5683457337327     
   2128.3221298070735     
   1009.1319103041226     
   477.02972825039012     
   234.59028478744384     
   141.19918331029240     
   800.00000000000091     
   800.19432682925105     
   800.54099051026060     
   800.80123398310468     
   800.95863230306293     
   801.09166406918041     
   801.27071820544825     
   801.55468671669053     
   802.42586519413896     
   807.10218732123269     
   0.0000000000000000     
   0.0000000000000000     
   0.0000000000000000     
   0.0000000000000000     
   0.0000000000000000     
   0.0000000000000000     
   0.0000000000000000     
   0.0000000000000000     
   0.0000000000000000     
   0.0000000000000000     
   0.0000000000000000     
   0.0000000000000000     
   0.0000000000000000     
   0.0000000000000000     
   0.0000000000000000     
   0.0000000000000000     
   0.0000000000000000     
   0.0000000000000000     
   0.0000000000000000     
   0.0000000000000000     
   0.0000000000000000     
   0.0000000000000000     
   0.0000000000000000     
   0.0000000000000000     
   0.0000000000000000     
   0.0000000000000000     
   0.0000000000000000     
   0.0000000000000000     
   0.0000000000000000     
   0.0000000000000000     
   0.0000000000000000     
   0.0000000000000000     
   0.0000000000000000     
   0.0000000000000000     
   0.0000000000000000     
   0.0000000000000000     
   0.0000000000000000     
   0.0000000000000000     
   0.0000000000000000     
   0.0000000000000000     
   0.0000000000000000     
   0.0000000000000000     
   0.0000000000000000     
   0.0000000000000000     
   0.0000000000000000     
   0.0000000000000000     
   0.0000000000000000     
   0.0000000000000000     
   0.0000000000000000     
   0.0000000000000000     
   0.0000000000000000     
   0.0000000000000000     
   0.0000000000000000     
   0.0000000000000000     
   0.0000000000000000     
   0.0000000000000000     
   0.0000000000000000     
   0.0000000000000000     
   0.0000000000000000     
   0.0000000000000000     
   0.0000000000000000     
   0.0000000000000000     
   0.0000000000000000     
   0.0000000000000000     
   0.0000000000000000     
   0.0000000000000000     
   0.0000000000000000     
   0.0000000000000000     
   0.0000000000000000     
   0.0000000000000000     
   0.0000000000000000     
   0.0000000000000000     
   0.0000000000000000     
   0.0000000000000000     
   0.0000000000000000     
   0.0000000000000000     
   0.0000000000000000     
   0.0000000000000000     
   0.0000000000000000     
   0.0000000000000000     
   0.0000000000000000     
   0.0000000000000000     
   0.0000000000000000     
   0.0000000000000000     
   0.0000000000000000     
   0.0000000000000000     
   0.0000000000000000     
   0.0000000000000000     
   0.0000000000000000     
   0.0000000000000000     
   1.7953321364447452E-010
   3401.9508467099768     
   9497.0234830355457     
   14052.285967247391     
   16781.511735892011     
   19074.194965243678     
   22173.854315046930     
   27118.050168969407     
   42381.195539124921     
   123654.39160765035     
   42382.335073835930     
   27119.535966873453     
   22177.468816162895     
   19112.076069498427     
   17100.265238058029     
   15654.448061171031     
   14555.318960795210     
   13685.442880802033     
   12976.192363630711     
   12384.747834406980     
   11883.124287876302     
   11452.371949162101     
   11079.195835866096     
   10753.875602915068     
   10468.940918123293     
   10217.997053565954     
   9994.7714680594618     
   9792.5888067255473     
   9604.8251715953502     
   9426.2556228926023     
   9254.3498900281174     
   9089.0918453634240     
   8931.3778905944546     
   8782.0216500603510     
   8641.2661743385815     
   8508.9216357658897     
   8384.6803339960370     
   8268.2966387924698     
   8159.6394681097127     
   8058.7337968732818     
   7962.6927706890183     
   7844.8334390802502     
   7796.8808704057737     
   8048.4231905815295     
   8814.2493110529958     
   10248.964540715830     
   12453.695000837253     
   15466.459297942820     
   19235.968765634978     
   23689.738233613250     
   28856.827413778119     
   34792.621157509595     
   41252.464170076950     
   47641.146009465410     
   53665.399383832759     
   59864.019915345634     
   66608.000570767908     
   72454.774141214046     
   75118.308144023555     
   75051.557923908942     
   73847.807222147225     
   71515.508509255174     
   67803.981395336770     
   62514.383006872878     
   55592.786861261739     
   47241.093477466842     
   37987.339907927555     
   28641.651922497411     
   20102.191560736846     
   13078.008849275784     
   7882.1519635478016     
   4413.7949315132955     
   2308.9700119109443     
   1136.0660819229552     
   529.36505564611900     
   235.04170122648995     
   99.942938423424138     
   40.854087898149992     
   16.098710673204209     
   6.1269674003180441     
   2.2550311444242337     
  0.80329556523152379     
  0.27710975474775568     
   9.2606450915280580E-002
   2.9988674029192492E-002
   9.4121609339344794E-003
   2.8636267944441773E-003
   8.4472444171490915E-004
   2.4163734430973502E-004
   6.7041982734725489E-005
   1.8044852825338671E-005
   4.7128550682064857E-006
   1.1947225317090719E-006
   2.9412483255807215E-007
   7.0427394449685900E-008
   1.6500071691206342E-008
   3.8803258418160987E-009
   1.0138787721150691E-009
   3.8325190233960740E-010
   2.5398513236226548E-010
  -1.2415740374277083E-009
  -3.7240437032908442     
  -7.5879952161912998     
  -11.708968439506704     
  -16.168313915402486     
  -20.997449683728391     
  -26.167079434408151     
  -31.585152326480980     
  -37.134927311687932     
  -42.901429193921494     
  -47.664684767143456     
  -52.320661818334273     
  -56.619359328985965     
  -60.655790663630057     
  -64.726930254930053     
  -69.276044975656745     
  -74.848543389751015     
  -82.032090686986265     
  -91.373115584336674     
  -103.26299398829576     
  -117.81694522734453     
  -134.79010558739768     
  -153.54947449719870     
  -173.07883657194557     
  -192.08881520753215     
  -209.38897824267255     
  -224.39792722409740     
  -237.65650111582892     
  -249.52797629693481     
  -239.71831068086374     
  -212.04801652234735     
  -210.60040655968388     
  -228.31934429004579     
  -267.76064644825874     
  -336.96558116789726     
  -443.81143659221715     
  -594.73595089872401     
  -793.58984685869780     
  -1040.2634868988944     
  -1327.7532108172093     
  -1549.0243788974767     
  -560.81892131136169     
   2183.9644672154991     
   6228.6493047937256     
   11146.575712924343     
   16651.435401962382     
   22558.531933019007     
   28703.228297974551     
   34898.392661403996     
   41040.210618890458     
   47189.131056150050     
   53403.915600561610     
   59455.298935773724     
   64910.301388437809     
   69683.714971894558     
   74289.706265716348     
   79008.603330375539     
   82898.941074186791     
   84633.739979445207     
   84625.238220081796     
   83896.695975002032     
   82443.025937776532     
   80074.224124731147     
   76595.693254806087     
   71849.341928536422     
   65776.008615809944     
   58482.109545921936     
   50279.929229363712     
   41666.759647093590     
   33230.676145535152     
   25513.859826953736     
   18894.644818495686     
   13537.460685653936     
   9416.2048545824036     
   6379.9270697176344     
   4223.0254178685682     
   2737.2270344611234     
   1740.3386258635744     
   1086.7538168716035     
   667.07062331711768     
   402.71791626658899     
   239.20988799720550     
   139.83368496504602     
   80.458259161245664     
   45.573042053321110     
   25.413624883659057     
   13.953566406110951     
   7.5440102791404833     
   4.0165915424469256     
   2.1061712415615901     
   1.0878153704232163     
  0.55346458949075561     
  0.27742685216686641     
  0.13702156570037088     
   6.6695424216749302E-002
   3.2009733991601418E-002
   1.5177234779957268E-002
   7.1744755833881083E-003
   3.5282125575406792E-003
   2.1236204770591245E-003
